; Created by cgenff_charmm2gmx.py

[ moleculetype ]
; Name			   nrexcl
BER			 3

[ atoms ]
;	 nr		  type	resnr residue  atom   cgnr	   charge		mass  typeB    chargeB		massB
; residue	 1  rtp  q	qsum

[ bonds ]
;	ai	  aj funct			  c0			c1			  c2			c3

[ pairs ]
;	ai	  aj funct			  c0			c1			  c2			c3

[ angles ]
;	ai	  aj	ak funct			c0			  c1			c2			  c3

[ dihedrals ]
;	ai	  aj	ak	  al funct			  c0			c1			  c2			c3			  c4			c5

