GRoups of Organic Molecules in ACtion for Science
   44
    1ber     C1    1   2.998  -3.214  -3.799
    1ber     C2    2   3.143  -3.229  -3.826
    1ber     N3    3   2.949  -3.240  -3.672
    1ber     C4    4   2.909  -3.178  -3.901
    1ber     C5    5   3.222  -3.301  -3.732
    1ber     C6    6   3.204  -3.177  -3.943
    1ber     C7    7   2.815  -3.233  -3.646
    1ber     C8    8   3.044  -3.271  -3.563
    1ber     C9    9   2.773  -3.170  -3.876
    1ber    C10   10   3.361  -3.319  -3.756
    1ber    C11   11   3.155  -3.364  -3.612
    1ber    C12   12   3.340  -3.200  -3.962
    1ber    C13   13   2.723  -3.198  -3.748
    1ber    C14   14   2.686  -3.135  -3.980
    1ber    C15   15   3.414  -3.267  -3.873
    1ber    O16   16   3.415  -3.164  -4.065
    1ber    C17   17   2.584  -3.188  -3.724
    1ber    C18   18   2.549  -3.127  -3.957
    1ber    O19   19   3.539  -3.276  -3.919
    1ber    C20   20   3.545  -3.212  -4.044
    1ber    C21   21   2.497  -3.153  -3.829
    1ber    O22   22   2.534  -3.211  -3.600
    1ber    C23   23   2.486  -3.335  -3.565
    1ber    O24   24   2.363  -3.146  -3.804
    1ber    C25   25   2.266  -3.219  -3.870
    1ber    H26   26   2.948  -3.156  -4.001
    1ber    H27   27   3.147  -3.121  -4.016
    1ber    H28   28   2.785  -3.332  -3.611
    1ber    H29   29   2.802  -3.161  -3.566
    1ber    H30   30   3.088  -3.178  -3.527
    1ber    H31   31   2.990  -3.319  -3.482
    1ber    H32   32   3.423  -3.372  -3.684
    1ber    H33   33   3.112  -3.460  -3.641
    1ber    H34   34   3.228  -3.379  -3.533
    1ber    H35   35   2.725  -3.114  -4.079
    1ber    H36   36   2.482  -3.101  -4.039
    1ber    H37   37   3.573  -3.282  -4.122
    1ber    H38   38   3.616  -3.129  -4.041
    1ber    H39   39   2.451  -3.332  -3.462
    1ber    H40   40   2.566  -3.409  -3.574
    1ber    H41   41   2.404  -3.362  -3.631
    1ber    H42   42   2.168  -3.193  -3.831
    1ber    H43   43   2.285  -3.325  -3.856
    1ber    H44   44   2.270  -3.195  -3.977
   0.00000   0.00000   0.00000
